% Model:              result_two_Psource_soft_500hz.mph
% Version:            COMSOL 6.2.0.290
% Date:               May 6 2024, 19:41
% Dimension:          2
% Nodes:              200
% Expressions:        10
% Description:        , 
% Length unit:        m
% X                       Y                        real(acpr.p_t) (Pa) @ freq=100 imag(acpr.p_t) (Pa) @ freq=100 real(acpr.p_t) (Pa) @ freq=200 imag(acpr.p_t) (Pa) @ freq=200 real(acpr.p_t) (Pa) @ freq=300 imag(acpr.p_t) (Pa) @ freq=300 real(acpr.p_t) (Pa) @ freq=400 imag(acpr.p_t) (Pa) @ freq=400 real(acpr.p_t) (Pa) @ freq=500 imag(acpr.p_t) (Pa) @ freq=500
-0.9                      0.9                      10.556536446297113       -6.600490609949829       -15.43185035841585       -13.363302565002273      -7.0908277428745         24.044315011875586       13.111236240646178       1.0107128419151121       23.187621955004918       -16.494103838775036
-0.863265306122449        0.9                      10.442486081512309       -6.601185444304521       -15.22411608590545       -13.1099464550331        -7.769098061929157       24.50607143116035        15.580614279746808       -1.0490691555199705      19.595540785688783       -13.542817650072053
-0.826530612244898        0.9                      10.305660719446657       -6.623299293246659       -15.081951886498198      -12.717123667285195      -8.270109675546804       24.78334690041869        18.277320201090834       -2.8038700165147215      14.898166280675742       -11.428245527361728
-0.789795918367347        0.9                      10.14776939567294        -6.665494617161406       -15.008832040449006      -12.189643094810073      -8.545585644904907       24.869965783575964       21.02577832417268        -4.23302395943329        9.365686326598576        -10.262429997857922
-0.753061224489796        0.9                      9.970679129616947        -6.726138549317293       -15.006381432887546      -11.533719632210238      -8.550613340389692       24.765195593178884       23.643475272039492       -5.348381863366998       3.310274442779552        -10.063224268751402
-0.7163265306122449       0.9                      9.776407637202453        -6.8033560651384954      -15.074399923734447      -10.757191771137927      -8.246492513058891       24.473425809330514       25.949498996513547       -6.189532992050619       -2.9303009273196636      -10.749398770377809
-0.6795918367346938       0.9                      9.567116731786665        -6.895067826609932       -15.210885121521518      -9.86949077803289        -7.602652894818581       24.003631797801795       27.773679385484993       -6.819582652524153       -9.016673867469326       -12.144056653168182
-0.6428571428571428       0.9                      9.345102048847677        -6.999037352565235       -15.412121263897108      -8.88165345326748        -6.5985259381073496      23.36878463778103        28.964983916743044       -7.318643288922353       -14.628919169706679      -13.986979988476142
-0.6061224489795918       0.9                      9.112780629803817        -7.112916729331692       -15.67280014109405       -7.8062793173484355      -5.2250035971285405      22.585173704801516       29.399079948315748       -7.7764432722863         -19.48588102170629       -15.954820650045367
-0.5693877551020408       0.9                      8.872676064670452        -7.234291407278042       -15.986176985113861      -6.65745401358951        -3.4854920769027626      21.671706805347302       28.9846724608273         -8.284343035619516       -23.360694095962334      -17.687743804090303
-0.5326530612244897       0.9                      8.627400972881606        -7.360722911456766       -16.344257591698085      -5.450633262308912       -1.3964994277707385      20.64923130278701        27.668394012560928       -8.927362004395881       -26.09173504528663       -18.82049927648656
-0.4959183673469388       0.9                      8.37963681849274         -7.489788601058015       -16.7380116244416        -4.202484075585159       1.0122858595937085       19.539901286660633       25.438038554544086       -9.776783933067012       -27.588604542714286      -19.01543939317204
-0.4591836734693877       0.9                      8.132111110525043        -7.6191180472700495      -17.15760746179263       -2.930684837840981       3.6984404989149025       18.366616425496204       22.32399543224041        -10.88386905408191       -27.83312818900254       -17.994691202867028
-0.4224489795918367       0.9                      7.887572233041954        -7.746425678215399       -17.592662490043224      -1.6536872750285474      6.607769538660543        17.15254474263094        18.398808435417386       -12.275120007975218      -26.875795561417046      -15.568647974858742
-0.3857142857142857       0.9                      7.648762333285835        -7.869539467013008       -18.0325021230318        -0.39044514414965265     9.675758573131759        15.9207316708918         13.7748535534929         -13.94943850434585       -24.828379797495522      -11.658140521871795
-0.34897959183673466      0.9                      7.418388862277746        -7.986425538229927       -18.46642045006855       0.8398839185025618       12.82946562430796        14.693789107890964       8.600201270709153        -15.877374521589461      -21.85369148031431       -6.308087116127211
-0.31224489795918364      0.9                      7.19909548507697         -8.095208640212123       -18.883935319753274      2.0182557264261254       15.98978438383983        13.49365147570331        3.052803532663278        -18.002520729675158      -18.153513932193935      0.3089252124840796
-0.2755102040816326       0.9                      6.9934331253120074       -8.19418849346553        -19.275030905953667      3.126067654250221        19.07399478201341        12.341381172946202       -2.66678137464117        -20.244951788086823      -13.955742397828752      7.89985330767731
-0.2387755102040816       0.9                      6.8038318365470065       -8.281852106426943       -19.63038146263475       4.145488922995547        21.99850482499729        11.257003923707222       -8.343842381445068       -22.506461991687793      -9.501623580951023       16.069003648951377
-0.2020408163265306       0.9                      6.6325739979252          -8.356882243981454       -19.941550990137088      5.0597847563046425       24.681679904793565       10.259355438022306       -13.758799100966424      -24.67722711773477       -5.033797780782183       24.3452814345321
-0.16530612244897958      0.9                      6.4817690227833955       -8.418162350807036       -20.20116487682293       5.853626929534231        27.046652814147848       9.365923970123387        -18.696912540339042      -26.64341583193634       -0.7856149291289005      32.21684849401614
-0.12857142857142856      0.9                      6.35332939718504         -8.464778365295285       -20.403051141171478      6.513384398101027        29.024009287660476       8.592678371265892        -22.957981140196054      -28.29520975093388       3.0280357330373637       39.170422152881606
-0.09183673469387754      0.9                      6.248947517045441        -8.496017997926613       -20.542350528817224      7.0273889766389654       30.55424962852301        7.95387725793505         -26.365560476286273      -29.534663390452152      6.218342906345301        44.731942086109015
-0.055102040816326525     0.9                      6.170072578636928        -8.511368171480246       -20.615596238644088      7.3861721531420965       31.589936127143478       7.461861047875036        -28.77524863828596       -30.282846810422203      8.628743462098504        48.505113547715375
-0.018367346938775397     0.9                      6.11788679813887         -8.51051141381398        -20.620765308118784      7.58266981513233         32.09744773864939        7.126833977755234        -30.08160903816335       -30.485763092269863      10.139828984078651       50.20443515277323
0.01836734693877562       0.9                      6.093280557765695        -8.493322034685164       -20.557304510939794      7.6123917867693764       32.05827713503631        6.956646924912128        -30.223359357881126      -30.11861570634064       10.673179108160149       49.67973975579472
0.055102040816326636      0.9                      6.096826725619399        -8.459862868808994       -20.42613384043725       7.47355242348862         31.4698197073444         6.956593720537236        -29.18653687260297       -29.188111421939023      10.194255761167591       46.92998604951234
0.09183673469387765       0.9                      6.128755199360642        -8.41038326189075        -20.229630431986656      7.1671577299423594       30.345620414961918       7.129233239275988        -27.00545414321955       -27.732616877769235      8.71438834256333         42.104976177481205
0.12857142857142867       0.9                      6.188929681151761        -8.345318698900817       -19.97159452304699       6.69704328128163         28.715060083473695       7.474245708328545        -23.761379130630655      -25.820125748220484      6.291765980313169        35.49474431028472
0.1653061224489797        0.9                      6.276829348085275        -8.265292161926503       -19.657197816993005      6.069856740022345        26.62248116434005        7.988328492321696        -19.578997620872908      -23.544144241900952      3.0312218382222014       27.507472957589638
0.2020408163265307        0.9                      6.391538404929413        -8.171116885021453       -19.292912842606665      5.294979106474071        24.125771853825317       8.665131401562792        -14.620838814263257      -21.017743204330564      -0.9174960108786079      18.63782272996021
0.23877551020408172       0.9                      6.531746240559586        -8.063799764431575       -18.886420453916724      4.384380523460541        21.294448196991695       9.495227983027421        -9.07995387871893        -18.366155432226755      -5.363321313554696       9.428413295247005
0.27551020408163274       0.9                      6.6957600657778995       -7.944544346670491       -18.446491792700566      3.3524094936583895       18.207295611254633       10.466117825912857       -3.1712251571737897      -15.718406353882788      -10.079671117042299      0.4277829651678838
0.31224489795918375       0.9                      6.881530642580444        -7.814752114767134       -17.98284110645395       2.215518344431569        14.949652508133203       11.562256480525525       2.8782566087433907       -13.198546177462314      -14.8126985952168        -7.851576286668609
0.34897959183673477       0.9                      7.086690230822502        -7.676020797288084       -17.50594707760236       0.9919322723221857       11.610438354104764       12.765114482569277       8.839280303345953        -10.917096570777977      -19.292080938390438      -14.97157856977771
0.3857142857142858        0.9                      7.308600504810539        -7.530138623667213       -17.026842584863996      -0.2987264700754809      8.279044580710217        14.053274018301721       14.490599016019273       -8.963328608866899       -23.244194207471622      -20.60015294602822
0.4224489795918368        0.9                      7.544407233721157        -7.379073767812369       -16.55687555945205       -1.6358445598433196      5.04221678711841         15.402579167283365       19.628564009278815       -7.3989469508022765      -26.4072450865535        -24.533610147880506
0.4591836734693878        0.9                      7.791098111799722        -7.2249585862990084      -16.107446323531704      -2.998237443692093       1.9810595149396726       16.786361504698604       24.075899934895215       -6.253668898592234       -28.547627654161833      -26.708127095274442
0.49591836734693884       0.9                      8.045560262977965        -7.070068594476415       -15.689729064153454      -4.364566643686735       -0.8317097210664215      18.175765524146332       27.68926315969412        -5.5230614859046945      -29.476488219560924      -27.19966863354753
0.5326530612244899        0.9                      8.304634503745337        -6.916796389884672       -15.314386623796718      -5.713739372622882       -3.3341418465736274      19.54019674047129        30.36528085432228        -5.168843724657437       -29.06525329988891       -26.21264452045522
0.5693877551020409        0.9                      8.56516426680004         -6.767620886115978       -14.991288263206458      -7.02527766581709        -5.476976165059936       20.84790865466568        32.04482863915078        -5.1216816191339545      -27.258741127437144      -24.058523923278265
0.6061224489795919        0.9                      8.824037962340004        -6.625072320208014       -14.729240145207259      -8.279646873100107       -7.225021958715856       22.066737070832517       32.715369145131724       -5.286336146900547       -24.084499536738292      -21.126388894247047
0.6428571428571429        0.9                      9.078224302209703        -6.491693548794554       -14.535736725843782      -9.458537864138119       -8.557959357528835       23.164974592974975       32.41124337798996        -5.54881579446571        -19.657099767830292      -17.848054860455804
0.6795918367346939        0.9                      9.324800862625391        -6.369998209581978       -14.416741324587667      -10.545099110330318      -9.470529864604389       24.112368579423197       31.21185617797398        -5.785085748434861       -14.17646028479192       -14.660650342134625
0.7163265306122449        0.9                      9.560976523103202        -6.262426006959565       -14.376498631612042      -11.524111350269292      -9.972111865576542       24.881187297555975       29.237807845803218       -5.870732500875334       -7.919907180692473       -11.969837729919695
0.753061224489796         0.9                      9.784108325815273        -6.171296829107416       -14.417390703908376      -12.382122779679667      -10.085747082180976      25.447357990416297       26.64509455527267        -5.690898592860552       -1.2276181657434315      -10.116526146115582
0.789795918367347         0.9                      9.991714452080263        -6.098763421865505       -14.539834057994916      -13.107526767098593      -9.846598112124829       25.791561891998047       23.61750145327329        -5.14985978709437        5.517473597159338        -9.349777567570024
0.826530612244898         0.9                      10.181480789916527       -6.046762364140464       -14.742187549943647      -13.690548290880843      -9.29997526896427        25.900187846938934       20.358079494577503       -4.179828037178328       11.912266428360866       -9.80775434517185
0.8632653061224492        0.9                      10.351270806177851       -6.016982677454178       -15.020830383863885      -14.123482526078044      -8.499397303396046       25.76640461242226        17.077489901988255       -2.745920188222697       17.568868592892617       -11.50859104245079
0.9                       0.9                      10.499127855607664       -6.010798186230058       -15.370076518345998      -14.400229984464438      -7.502976345407876       25.39059280477805        13.985732187993394       -0.8546075194319788      22.127809494955898       -14.351594166869678
0.9                       0.9                      10.499127855607664       -6.010798186230058       -15.370076518345998      -14.400229984464438      -7.502976345407876       25.39059280477805        13.985732187993394       -0.8546075194319788      22.127809494955898       -14.351594166869678
0.9                       0.863265306122449        11.153692393169852       -5.290064674962302       -13.954808333537883      -16.870111624985874      -11.634131925528484      23.923980106252447       12.212306483269304       3.5301921814848134       28.191944580071652       -8.229139521531954
0.9                       0.826530612244898        11.782874185978674       -4.517918574295557       -12.20983120494001       -19.19657221631857       -15.43872784277319       21.697558022289517       9.180788827056388        7.183583477460669        32.30395509210367        0.03275141198811152
0.9                       0.789795918367347        12.385216828934256       -3.694770734205654       -10.151503542453044      -21.337604509790584      -18.76872595896417       18.778070359469403       5.12222990811025         9.768975138670214        33.76663517597312        9.7633141865305
0.9                       0.753061224489796        12.959483098823412       -2.820917122992524       -7.801240013760788       -23.253204611347186      -21.48895356962084       15.260763327790785       0.3527382707240634       11.016413423742737       32.1191142820618         20.077358540521328
0.9                       0.7163265306122449       13.504647727268605       -1.896505796638479       -5.185210644141851       -24.905889154421608      -23.48261205173727       11.266823530892701       -4.744644564785398       10.743701347786168       27.199464827666535       29.958122761009403
0.9                       0.6795918367346938       14.019910183909303       -0.9214685447302517      -2.333938765305902       -26.26121049303397       -24.65594799878664       6.939753489202328        -9.743854367332471       8.872017091250349        19.178288593392423       38.35830039037349
0.9                       0.6428571428571428       14.504696542376408       0.10455208509994039      0.7181796529443345       -27.288164077611516      -24.94223746079708       2.4408543620730616       -14.203104113009164      5.435230632078583        8.55868590472274         44.30841889235059
0.9                       0.6061224489795918       14.95865977486012        1.1822947342250765       3.9334142637246656       -27.95950341597329       -24.30478344386291       -2.055947217999014       -17.693949946144272      0.5819785100132544       -3.858596897579581       47.021365864096445
0.9                       0.5693877551020408       15.381674148795385       2.312989577360597        7.271287854154649        -28.25193340896165       -22.73883369786498       -6.369762621954647       -19.830313950638764      -5.429727582455643       -17.04200654365637       45.98230098527889
0.9                       0.5326530612244897       15.773824509416192       3.4984953735968354       10.689205734607068       -28.14617063535999       -20.2723310453072        -10.318658669159213      -20.295477808846464      -12.245191328298104      -29.822329766783128      41.01423273398749
0.9                       0.4959183673469388       16.13538961697227        4.741470461920616        14.143111828321192       -27.626849040038653      -16.96544560557513       -13.725578665654181      -18.865237956927352      -19.4323180421572        -41.003237106780745      32.31183814555519
0.9                       0.4591836734693877       16.466819359901923       6.045587419401665        17.588159020367623       -26.682252760434846      -12.908894538044516      -16.424018603456165      -15.425633316959047      -26.506354060712585      -49.47845059474521       20.43926319831316
0.9                       0.4224489795918367       16.768706207977345       7.415803907800082        20.979381013208936       -25.30385594242205       -8.221099311748338       -18.263208207942863      -9.983970540131399       -32.958549366049134      -54.34380943806966       6.291201265715005
0.9                       0.3857142857142857       17.041751740367584       8.858702875266415        24.272353651815152       -23.48565428581652       -3.044280407795329       -19.112572752888408      -2.672305735683298       -38.28693555475635       -54.99277822475469       -8.979729874013573
0.9                       0.34897959183673466      17.28672973898137        10.382910888847046       27.423835025455347       -21.22328943996315       2.460368043122897        -18.865305717359085      6.256970292065491        -42.0272889975575        -51.18538595474309       -24.062888626584503
0.9                       0.31224489795918364      17.504447892746295       11.999582380168055       30.392375491360383       -18.51301937109867       8.118243247957963        -17.441003780682877      16.443278967526567       -43.78244189514409       -43.08307523469038       -37.607700282263195
0.9                       0.2755102040816326       17.695710523115707       13.722868082732756       33.13889066674422        -15.350740612506806      13.747427257354968       -14.787605383104848      27.43705297226914        -43.2485650518089        -31.245246424792462      -48.349416373166605
0.9                       0.2387755102040816       17.861284816667787       15.570078953163646       35.62719243711741        -11.731702186137877      19.165077017040133       -10.883606272803203      38.72483577738582        -40.2382503377695        -16.5870690572912        -55.23253045030383
0.9                       0.2020408163265306       18.00187274653077        17.56065482522445        37.8244744573374         -7.652784657592383       24.19386898729142        -5.7434833370044265      49.75873379031958        -34.70321513703749       -0.3020185764938955      -57.52571375894116
0.9                       0.16530612244897958      18.118090150738038       19.711303029127166       39.70174943658959        -3.122745722796045       28.668257375465586       0.5653196585825475       59.988381926876016       -26.767189314762845      16.243818245310543       -54.93303729352059
0.9                       0.12857142857142856      18.210453379805276       22.019709250139073       41.23423565167594        1.8042143752930098       32.44031176088676        7.870476204332935        68.89340491370352        -16.80001872269482       31.635686460514915       -47.73380175324185
0.9                       0.09183673469387754      18.279373095241557       24.41659552917543        42.4016890918863         6.93111880326311         35.38492970731067        15.747334964762437       76.01434629337864        -5.613214162308694       44.54047300799646        -37.045765331732305
0.9                       0.055102040816326525     18.32515331235566        26.648889017135883       43.18867761204791        11.68377846204579        37.40423658617516        23.168910378936864       80.98010382551064        5.086124884298425        53.830718253779764       -25.371162837895262
0.9                       0.018367346938775397     18.34799372496322        28.12441244189645        43.58479218793564        14.805549039373505       38.43101120027199        28.0665691379463         83.53013974614551        12.15976037327474        58.69011831939604        -17.163319498880163
0.9                       -0.01836734693877562     18.347992991459396       28.123276309139612       43.584791901230695       14.80325609484           38.43102861768428        28.063049110266235       83.53012233375179        12.154929482720613       58.69020288324069        -17.16953869622934
0.9                       -0.055102040816326636    18.325152297870876       26.647900518230422       43.188677891374574       11.681787396788485       37.40426754106627        23.16581087384631        80.98007849647027        5.081881125660064        53.83092663415623        -25.37674510403914
0.9                       -0.09183673469387765     18.27937131014922        24.41587635595479        42.40168968930244        6.9296793875416745       35.384973778714226       15.74504112428096        76.01428432025662        -5.616330438239023       44.54077724989733        -37.04995202811528
0.9                       -0.12857142857142867     18.21045086091675        22.019397574644913       41.23423669256331        1.803613408094156        32.4403690262105         7.869449023343112        68.8933131751388         -16.80133519114956       31.63609751974817        -47.73564455602933
0.9                       -0.1653061224489797      18.118086982335466       19.711220797862257       39.70175124603852        -3.1228668065628007      28.66832620954879        0.5650189172940051       59.98826994697468        -26.767429763240898      16.244344118619402       -54.933459873306454
0.9                       -0.2020408163265307      18.001869072850752       17.560655466878956       37.82447729868778        -7.65272502215386        24.193947587621967       -5.7435169682386595      49.758612761228235       -34.70301737235865       -0.30137446165617177     -57.525572950233794
0.9                       -0.23877551020408172     17.861280715922216       15.570104535824962       35.627196865923786       -11.73158174878071       19.165162418413924       -10.883560063321875      38.72471578997171        -40.237877338054744      -16.5863075847296        -55.23221567863433
0.9                       -0.27551020408163274     17.69570606135449        13.72289806709364        33.138897208555726       -15.350602957086702      13.747517574517255       -14.78754721231277       27.43694590369079        -43.24811806652323       -31.244370863966513      -48.349098136722326
0.9                       -0.31224489795918375     17.504443157372084       11.999609137651333       30.392384601191193       -18.512881897234458      8.118335707275364        -17.440960786613388      16.443194972615842       -43.78196759317508       -43.08210506674552       -37.607476668865715
0.9                       -0.34897959183673477     17.28672479671236        10.382932549037337       27.423847169638858       -21.223157495209215      2.4604597932060788       -18.865285421581763      6.256918759874299        -42.02680686911122       -51.184349693744295      -24.062813993921488
0.9                       -0.3857142857142858      17.041746650973          8.858719442138161        24.272369240832752       -23.48552923130087       -3.0441920953371793      -19.112575665473678      -2.672316829645225       -38.28645700163926       -54.991713895307825      -8.979836397589382
0.9                       -0.4224489795918368      16.768701018971605       7.415815974898846        20.979400407516113       -25.30373780748479       -8.221016990561294       -18.26323220868076       -9.98393511775064        -32.95808352429558       -54.3427625944958        6.29089763735343
0.9                       -0.4591836734693878      16.466814104219676       6.045595695169113        17.5881825164731         -26.68214123959481       -12.908820473694824      -16.42406063447269       -15.425547725787386      -26.505910054633233      -49.47747138652134       20.438761798613854
0.9                       -0.49591836734693884     16.13538431176802        4.74147559220181         14.143139620835798       -27.626743877749455      -16.96538177697911       -13.725635435043458      -18.865101666819733      -19.431905479690307      -41.00237634618392       32.31115434691502
0.9                       -0.5326530612244899      15.773819154933529       3.4984979249485724       10.689237938373754       -28.146071658003372      -20.2722790175142        -10.318726778964919      -20.29529325340991       -12.244819780169257      -29.821633823993178      41.013397097421596
0.9                       -0.5693877551020409      15.381668726631377       2.3129899802130294       7.271324492486977        -28.251840641583406      -22.7387949232811        -6.3698390839910575      -19.83008694158005       -5.429405989693756       -17.04151452887498       45.98135784367455
0.9                       -0.6061224489795919      14.958654251365491       1.1822933199317767       3.933455112647609        -27.959416929391555      -24.304758873221832      -2.056028749888303       -17.693689086244934      0.582242932876867        -3.8583311206203184      47.020370679168714
0.9                       -0.6428571428571429      14.50469088104388        0.10454915463746169      0.7182242905155984       -27.28808388374589       -24.942226781241537      2.4407717384492766       -14.20281924744709       5.435432076277775        8.558723782150583        44.307427883782815
0.9                       -0.6795918367346939      14.019904388909119       -0.9214725986198391      -2.333890604001885       -26.261136524114033      -24.655949429046583      6.939674238645155        -9.743553558895965       8.872150108049778        19.178108096247236       38.357360963414756
0.9                       -0.7163265306122449      13.50464188975564        -1.8965105250708385      -5.185157953731296       -24.905822696828576      -23.482627324781262      11.266747381798439       -4.744344072498243       10.743763579497948       27.19906481887912        29.95731111770105
0.9                       -0.753061224489796       12.959475965625634       -2.820924391635057       -7.801187323634281       -23.25314293376346       -21.488993271754712      15.260694354934326       0.3530320857563312       11.016446063118993       32.11864850311055        20.07668508470603
0.9                       -0.789795918367347       12.38520833353391        -3.694779889538199       -10.151457879280517      -21.337538578651575      -18.768744134650735      18.778042322029282       5.1225767338288435       9.7689116800612          33.76608753138656        9.762524593141322
0.9                       -0.826530612244898       11.782868262130378       -4.5179248611912035      -12.209777192360896      -19.196528447950385      -15.438735654500151      21.69751971440766        9.180919595353323        7.183467790847512        32.303481728744025       0.032356026864843644
0.9                       -0.8632653061224492      11.153684667155309       -5.290073160501929       -13.954750909345883      -16.87007432373152       -11.634177426800537      23.923940063442974       12.212380677696235       3.530088321549789        28.191570580474693       -8.229248592143447