% Model:              result_two_Psource_soft_500hz.mph
% Version:            COMSOL 6.2.0.290
% Date:               Apr 28 2024, 19:26
% Dimension:          2
% Nodes:              100
% Expressions:        10
% Description:        , 
% Length unit:        m
% X                       Y                        real(acpr.p_t) (Pa) @ freq=100 imag(acpr.p_t) (Pa) @ freq=100 real(acpr.p_t) (Pa) @ freq=200 imag(acpr.p_t) (Pa) @ freq=200 real(acpr.p_t) (Pa) @ freq=300 imag(acpr.p_t) (Pa) @ freq=300 real(acpr.p_t) (Pa) @ freq=400 imag(acpr.p_t) (Pa) @ freq=400 real(acpr.p_t) (Pa) @ freq=500 imag(acpr.p_t) (Pa) @ freq=500
0.15010401309801608       0                        -1.229898090990128E-16   -8.397758356367922E-17   -3.690262707314912E-16   2.1046876284239864E-16   2.357419209379418E-16    8.212434214280046E-16    1.4459332241193449E-15   -1.12179438544956E-16    2.0164079783866697E-16   -2.302979078653586E-15
0.15277419616790702       0.009709085874376936     0                        0                        0                        0                        0                        0                        0                        0                        0                        0
0.16055500740635828       0.020489897380627325     0                        0                        0                        0                        0                        0                        0                        0                        0                        0
0.17277661115598408       0.03329996235856685      0                        0                        0                        0                        0                        0                        0                        0                        0                        0
0.1883854647646616        0.04887927451275465      0                        0                        0                        0                        0                        0                        0                        0                        0                        0
0.20603265283641725       0.06766764865330542      0                        0                        0                        0                        0                        0                        0                        0                        0                        0
0.22418624576888657       0.08975063405845964      0                        0                        0                        0                        0                        0                        0                        0                        0                        0
0.24125765287244622       0.11483914505815265      0                        0                        0                        0                        0                        0                        0                        0                        0                        0
0.25573076459616556       0.14228477622088373      0                        0                        0                        0                        0                        0                        0                        0                        0                        0
0.26628254261174933       0.17112939903773455      0                        0                        0                        0                        0                        0                        0                        0                        0                        0
0.2718846268837768        0.2001844095939881       0                        0                        0                        0                        0                        0                        0                        0                        0                        0
0.27187739216100154       0.22813221948773704      4.113502110702045E-15    1.7165216192677728E-15   7.765361343890312E-15    -7.587939681852516E-15   -1.0475482126434566E-14  -1.6931618018891956E-14  -2.7780318008345134E-14  1.2012793207075804E-14   1.1276194230513158E-14   3.85144795962654E-14
0.2660105193751211        0.2536405179102226       0                        0                        0                        0                        0                        0                        0                        0                        0                        0
0.2544472951655325        0.27547867448143354      0                        0                        0                        0                        0                        0                        0                        0                        0                        0
0.23773321317363277       0.2926255053405398       0                        0                        0                        0                        0                        0                        0                        0                        0                        0
0.21673270433248334       0.3043584966561057       0                        0                        0                        0                        0                        0                        0                        0                        0                        0
0.19254066394096914       0.3103163798052192       0                        0                        0                        0                        0                        0                        0                        0                        0                        0
0.16637760745714714       0.3105295020789757       0                        0                        0                        0                        0                        0                        0                        0                        0                        0
0.13947857911437278       0.3054154863402681       0                        0                        0                        0                        0                        0                        0                        0                        0                        0
0.11298624821918253       0.2957409270174396       0                        0                        0                        0                        0                        0                        0                        0                        0                        0
0.0878579437703799        0.2825530155761393       0                        0                        0                        0                        0                        0                        0                        0                        0                        0
0.06479478148141364       0.26708772702324934      0                        0                        0                        0                        0                        0                        0                        0                        0                        0
0.044198698152002704      0.2506632732802237       0                        0                        0                        0                        0                        0                        0                        0                        0                        0
0.026160365980841274      0.23456874957698182      -3.562314684164371E-15   1.2842140400166989E-15   4.925041377811133E-15    6.032860863074052E-15    5.959115523569613E-15    -1.0061271599554349E-14  -1.5226095213550113E-14  -2.926120952251766E-15   2.9987341813402452E-15   1.8998940061817983E-14
0.010477898620422733      0.21995816128926612      -3.676752087901885E-15   1.2589889844281503E-15   4.8069287333161405E-15   6.3203293784596726E-15   6.5726093535310955E-15   -9.818781651572928E-15   -1.4937448060181835E-14  -4.119722524609686E-15   9.482855942795303E-16    1.8971288464732602E-14
-0.0032967166634077644    0.2077593099500879       0                        0                        0                        0                        0                        0                        0                        0                        0                        0
-0.015789131465630647     0.1986054218059648       0                        0                        0                        0                        0                        0                        0                        0                        0                        0
-0.027719748928307707     0.19279508859158398      0                        0                        0                        0                        0                        0                        0                        0                        0                        0
-0.03981527385497507      0.19028329406519234      2.2715763249721995E-17   -6.8999460251457006E-18  -2.5914940679012714E-17  -4.006305908439762E-17   -4.5443267643684767E-17  5.244192714888267E-17    7.969584074750364E-17    3.8637686985207105E-17   2.1105384545259348E-17   -1.0348275554350864E-16
-0.052723815199131344     0.19070330080597553      0                        0                        0                        0                        0                        0                        0                        0                        0                        0
-0.06694202015167522      0.19341626495026784      0                        0                        0                        0                        0                        0                        0                        0                        0                        0
-0.08276125128230269      0.1975829133828201       0                        0                        0                        0                        0                        0                        0                        0                        0                        0
-0.10023768145469449      0.20224969854362013      5.322100675512977E-15    -1.2728612714478697E-15  -4.5368358840976746E-15  -9.64688410818355E-15    -1.2034646284652976E-14  8.760090678738098E-15    1.2754287594757329E-14   1.3074448899076183E-14   1.3546211818827961E-14   -1.6447942609167782E-14
-0.11918860298493356      0.20644071605306036      0                        0                        0                        0                        0                        0                        0                        0                        0                        0
-0.1392144959930887       0.20924642426390747      -9.706088336664385E-15   1.547160829551429E-15    4.850731469740502E-15    1.8015430967190067E-14   2.4257105088249276E-14   -8.17385980165495E-15    -1.0076564202977639E-14  -3.039702446879508E-14   -3.825903401242724E-14   1.1790777753179254E-14
-0.15974375773122498      0.20990084763392258      0                        0                        0                        0                        0                        0                        0                        0                        0                        0
-0.18009472636204166      0.20784039374535407      1.2598565435694781E-14   -4.811790916189705E-16   2.862709686178132E-16    -2.3869654847831454E-14  -3.4196134283020786E-14  -3.9842105067181635E-15  -1.1244918795433933E-14  4.653022725246678E-14    6.270959800156628E-14    1.903793889737195E-14
-0.19954796389910268      0.2027395039705975       1.38786975857033E-14     5.029970223316904E-16    4.647488756968895E-15    -2.639265159554815E-14   -3.832182356385333E-14   -1.3693982881826636E-14  -2.7562831554245165E-14  5.245517753550349E-14    6.990720136523582E-14    4.249172736190572E-14
-0.21742085443667034      0.1945208655359977       -9.387115838023866E-15   -1.1624392238827165E-15  -6.508744702206194E-15   1.776978778951259E-14    2.5666226858094952E-14   1.6279449183624294E-14   2.980073965422443E-14    -3.4221551749370904E-14  -4.330600648033442E-14   -4.438665455379597E-14
-0.23313650640515685      0.1833405751014604       0                        0                        0                        0                        0                        0                        0                        0                        0                        0
-0.24627971539230153      0.16955118675353212      0                        0                        0                        0                        0                        0                        0                        0                        0                        0
-0.2566342555654792       0.15364774301429832      0                        0                        0                        0                        0                        0                        0                        0                        0                        0
-0.2641978560647481       0.13620346129938074      0                        0                        0                        0                        0                        0                        0                        0                        0                        0
-0.26917365945649585      0.11780257951745057      0                        0                        0                        0                        0                        0                        0                        0                        0                        0
-0.2719394938770787       0.0989778812926729       4.590566815904133E-16    2.2807427105215915E-16   9.701911894205204E-16    -7.583857528967708E-16   -7.890116560418177E-16   -2.024880232595522E-15   -3.1931233141967237E-15  3.464943759909433E-16    -6.836509393367496E-16   4.319888574195905E-15
-0.27299865298478077      0.08015963705281935      -3.355874348161243E-17   -1.766829470349085E-17   -7.449210246138874E-17   5.434002337611698E-17    5.309800336211345E-17    1.541235911831832E-16    2.4081051534597277E-16   -1.3203394512169413E-17  7.354276798149162E-17    -3.229094205626235E-16
-0.2729178224961671       0.06164120851082518      0                        0                        0                        0                        0                        0                        0                        0                        0                        0
-0.2722591184023611       0.04356453980834083      0                        0                        0                        0                        0                        0                        0                        0                        0                        0
-0.2715137751277979       0.025926422012505515     0                        0                        0                        0                        0                        0                        0                        0                        0                        0
-0.2710447863783102       0.008604022717981597     0                        0                        0                        0                        0                        0                        0                        0                        0                        0
-0.2710447863783102       -0.008604022717981651    0                        0                        0                        0                        0                        0                        0                        0                        0                        0
-0.2715137751277979       -0.025926422012505567    -3.148259551650136E-15   -1.790803097416633E-15   -7.461073108874707E-15   4.9396231616895584E-15   4.326960987150904E-15    1.5251206614025532E-14   2.3514837593915376E-14   4.732317774207164E-16    1.0183529063236071E-14   -3.1113367381462336E-14
-0.2722591184023611       -0.04356453980834089     0                        0                        0                        0                        0                        0                        0                        0                        0                        0
-0.2729178224961671       -0.06164120851082511     0                        0                        0                        0                        0                        0                        0                        0                        0                        0
-0.27299865298478077      -0.08015963705281941     0                        0                        0                        0                        0                        0                        0                        0                        0                        0
-0.2719394938770787       -0.09897788129267282     -4.224376788404249E-16   -2.0997601339933325E-16  -8.93140555401817E-16    6.977934446209757E-16    7.256777502132506E-16    1.8639339922227485E-15   2.9390889028708053E-15   -3.1781518018432917E-16  6.311250706771553E-16    -3.975903671486688E-15
-0.2691736594564959       -0.11780257951745064     0                        0                        0                        0                        0                        0                        0                        0                        0                        0
-0.2641978560647481       -0.13620346129938066     0                        0                        0                        0                        0                        0                        0                        0                        0                        0
-0.2566342555654792       -0.15364774301429837     0                        0                        0                        0                        0                        0                        0                        0                        0                        0
-0.24627971539230156      -0.16955118675353206     1.510157776045605E-14    4.216766028260233E-15    1.9721075189676148E-14   -2.768259312622061E-14   -3.748413166072535E-14   -4.4533642066695446E-14  -7.560970939678426E-14   4.317340264028935E-14    4.215481877125376E-14    1.0848379826202849E-13
-0.23313650640515682      -0.18334057510146043     1.155260958021943E-14    2.3508468185710796E-15   1.1682287748216952E-14   -2.159936227282308E-14   -3.0472443367766226E-14  -2.7440747550912933E-14  -4.806128670503551E-14   3.843712383389431E-14    4.433204997650352E-14    7.017886295097922E-14
-0.21742085443667036      -0.1945208655359977      -9.807654501571909E-15   -1.2167920486568144E-15  -6.810313611359182E-15   1.8566787614845417E-14   2.6820650515689244E-14   1.70314654887273E-14     3.117515377508309E-14    -3.576554053135965E-14   -4.526340363957716E-14   -4.643440724095223E-14
-0.19954796389910257      -0.20273950397059753     0                        0                        0                        0                        0                        0                        0                        0                        0                        0
-0.18009472636204168      -0.20784039374535404     0                        0                        0                        0                        0                        0                        0                        0                        0                        0
-0.15974375773122493      -0.20990084763392258     0                        0                        0                        0                        0                        0                        0                        0                        0                        0
-0.13921449599308877      -0.20924642426390747     -9.705623587523442E-15   1.5472261511263297E-15   4.851095093611791E-15    1.8014577825011182E-14   2.4255948511415262E-14   -8.174741545926232E-15   -1.0078104515855052E-14  -3.039569091124915E-14   -3.8257852403433995E-14  1.1792998376961171E-14
-0.11918860298493335      -0.2064407160530603      7.8101318815045E-15      -1.5982787241966667E-15  -5.459825514561998E-15   -1.4318391396183177E-14  -1.854208428665294E-14   1.0111340321003878E-14   1.4073235519134489E-14   2.1714917447790836E-14   2.5184875198420573E-14   -1.777590062895995E-14
-0.10023768145469443      -0.20224969854362007     0                        0                        0                        0                        0                        0                        0                        0                        0                        0
-0.08276125128230269      -0.1975829133828201      0                        0                        0                        0                        0                        0                        0                        0                        0                        0
-0.06694202015167527      -0.19341626495026787     0                        0                        0                        0                        0                        0                        0                        0                        0                        0
-0.052723815199131246     -0.19070330080597547     0                        0                        0                        0                        0                        0                        0                        0                        0                        0
-0.03981527385497503      -0.19028329406519234     2.6818367460373842E-17   -8.154805986440476E-18   -3.063416042877005E-17   -4.729145584890246E-17   -5.36125465131386E-17    6.200239293300479E-17    9.423813291919502E-17    4.5505561148216356E-17   2.4679992421362348E-17   -1.2236450056100406E-16
-0.027719748928307707     -0.19279508859158398     -2.3407220471573074E-16  7.279796328951676E-17    2.7449741123149924E-16   4.1113847094088287E-16   4.598563204815049E-16    -5.570932788583575E-16   -8.480924358894907E-16   -3.7450201884544206E-16  -1.6784461845627323E-16  1.0987227018776536E-15
-0.0157891314656307       -0.19860542180596483     0                        0                        0                        0                        0                        0                        0                        0                        0                        0
-0.0032967166634076785    -0.20775930995008796     0                        0                        0                        0                        0                        0                        0                        0                        0                        0
0.010477898620422784      -0.21995816128926624     0                        0                        0                        0                        0                        0                        0                        0                        0                        0
0.02616036598084121       -0.23456874957698176     0                        0                        0                        0                        0                        0                        0                        0                        0                        0
0.04419869815200256       -0.25066327328022353     0                        0                        0                        0                        0                        0                        0                        0                        0                        0
0.06479478148141371       -0.26708772702324945     0                        0                        0                        0                        0                        0                        0                        0                        0                        0
0.0878579437703799        -0.2825530155761393      0                        0                        0                        0                        0                        0                        0                        0                        0                        0
0.11298624821918242       -0.2957409270174396      0                        0                        0                        0                        0                        0                        0                        0                        0                        0
0.13947857911437292       -0.30541548634026816     0                        0                        0                        0                        0                        0                        0                        0                        0                        0
0.16637760745714725       -0.3105295020789757      0                        0                        0                        0                        0                        0                        0                        0                        0                        0
0.19254066394096914       -0.3103163798052192      0                        0                        0                        0                        0                        0                        0                        0                        0                        0
0.21673270433248323       -0.3043584966561057      -7.459209883975579E-15   3.2524104076780655E-16   -4.69142103238433E-16    1.3621550217026583E-14   1.8746621685803862E-14   3.833162620825843E-15    1.0341332676617442E-14   -2.5036469918583128E-14  -3.401906283028128E-14   -1.7832735970077122E-14
0.23773321317363286       -0.2926255053405397      0                        0                        0                        0                        0                        0                        0                        0                        0                        0
0.25444729516553255       -0.2754786744814335      0                        0                        0                        0                        0                        0                        0                        0                        0                        0
0.26601051937512105       -0.2536405179102226      0                        0                        0                        0                        0                        0                        0                        0                        0                        0
0.2718773921610015        -0.22813221948773724     0                        0                        0                        0                        0                        0                        0                        0                        0                        0
0.27188462688377674       -0.20018440959398792     4.537873662465504E-18    2.3060601411843347E-18   1.0159203006545492E-17   -8.160151716075732E-18   -1.0630992406533262E-17  -2.181807598049949E-17   -3.5576515271410395E-17  1.0551786508357813E-17   7.040255418212319E-18    4.968276355767947E-17
0.26628254261174933       -0.17112939903773453     0                        0                        0                        0                        0                        0                        0                        0                        0                        0
0.25573076459616567       -0.1422847762208838      0                        0                        0                        0                        0                        0                        0                        0                        0                        0
0.24125765287244633       -0.11483914505815278     6.782370785634817E-15    4.450553062142727E-15    1.9288088698326245E-14   -1.1569691822779249E-14  -1.3089660202796285E-14  -4.171663218449017E-14   -7.025993164590675E-14   7.497208175321631E-15    -6.261643287324214E-15   1.0508547352843485E-13
0.2241862457688865        -0.08975063405845952     0                        0                        0                        0                        0                        0                        0                        0                        0                        0
0.2060326528364172        -0.06766764865330538     0                        0                        0                        0                        0                        0                        0                        0                        0                        0
0.18838546476466175       -0.04887927451275473     3.274445663348729E-16    2.2328593934800465E-16   9.778794582393762E-16    -5.586588783004509E-16   -6.229356800866138E-16   -2.1635669080142627E-15  -3.77780544283918E-15    2.965822554897145E-16    -5.160775589380942E-16   5.9519769302915905E-15
0.17277661115598392       -0.033299962358566734    0                        0                        0                        0                        0                        0                        0                        0                        0                        0
0.16055500740635825       -0.020489897380627283    0                        0                        0                        0                        0                        0                        0                        0                        0                        0
0.15277419616790702       -0.00970908587437694     0                        0                        0                        0                        0                        0                        0                        0                        0                        0
0.15010401309801608       -3.676487983593155E-17   2.3158327725469405E-16   1.5812542931582432E-16   6.947805971075707E-16    -3.962576815889668E-16   -4.4375856282322205E-16  -1.5459037577109503E-15  -2.7211161669995484E-15  2.1111043462227302E-16   -3.7934613731051857E-16  4.332567606532406E-15
