% Model:              result_two_Psource_soft_500hz.mph
% Version:            COMSOL 6.2.0.290
% Date:               May 6 2024, 19:39
% Dimension:          2
% Nodes:              9127
% Expressions:        10
% Description:        , 
% Length unit:        m
% X                       Y                        real(acpr.p_t) (Pa) @ freq=100 imag(acpr.p_t) (Pa) @ freq=100 real(acpr.p_t) (Pa) @ freq=200 imag(acpr.p_t) (Pa) @ freq=200 real(acpr.p_t) (Pa) @ freq=300 imag(acpr.p_t) (Pa) @ freq=300 real(acpr.p_t) (Pa) @ freq=400 imag(acpr.p_t) (Pa) @ freq=400 real(acpr.p_t) (Pa) @ freq=500 imag(acpr.p_t) (Pa) @ freq=500
1.099644378814193         1.1231261545902473       6.1610028882318195       -9.364425053212146       -18.340097381270052      2.070935493197403        18.5042047240899         12.158537942598395       1.9761274306167105       -8.910152872306924       -28.98652926309803       -12.310970451287423
1.131370849898476         1.1313708498984762       5.934521259695292        -9.48184866842016        -18.268905361447448      3.046158279552955        18.960237147416628       10.1087292945871         2.7955980851799596       -8.23321188571872        -32.4183013252415        -7.7345073427570625
1.1071021429379642        1.155129795781482        5.449990919331402        -9.634085262626026       -17.510894168387978      4.073327632904971        20.136298663040936       9.05035334599649         -1.0126481333864         -9.35025337464596        -29.84669085437299       -4.051255212240147
1.075489487897616         1.1461617619780236       5.681127442771168        -9.530012640524362       -17.617242574460928      3.159307264926596        19.687394160227285       11.152520573068857       -1.6612301921822006      -10.442300757772381      -26.70898488525952       -8.166799266232923
1.0823345575225019        1.1783683234000188       4.9680725095016065       -9.775701194841707       -16.664547628762058      5.070653262490634        21.07217517335457        7.871471920368994        -4.839772156632737       -10.045646751539257      -26.40543466153575       -0.7183853274971543
1.0508564089721542        1.168663137405412        5.204550643109585        -9.6847820546565         -16.80635766119101       4.221066440808392        20.634202494648232       10.00818162125375        -5.336008317721267       -11.55198942819879       -23.542013022370696      -4.2658736959996295
1.0570793107092005        1.201075905540762        4.489620212477474        -9.906917836913937       -15.734118987372748      6.033475545004921        21.752267575582028       6.594831736885116        -8.600485571854394       -10.326134434285903      -22.192980987784818      2.1429860782582204
1.0258455826367565        1.1907464131858057       4.729338006639079        -9.829864683365047       -15.908150738132148      5.258928759111041        21.333568089018204       8.731770150733679        -8.972472438268367       -12.229813415616299      -19.57931975906072       -0.7148490405911511
1.0313478282348794        1.223242272485381        4.015472250523628        -10.027995392937367      -14.72442879921113       6.957584282608003        22.16442648687676        5.244155266174426        -12.210911999199864      -10.210104748906513      -17.33487610686374       4.434680801018107
1.0004041562772272        1.21227388318389         4.25919805742384         -9.964437622167877       -14.930987271166574      6.260163312097137        21.76656670486938        7.361070746390275        -12.473852401570445      -12.489466684537476      -14.936388764167132      2.3420245003793316
1.0051517297276047        1.2448574216453885       3.5464493193158924       -10.139229344665338      -13.640815938269052      7.839252539438465        22.3000970836458         3.843667189002717        -15.590670831820711      -9.726857988911027       -11.97876049552255       6.085634326771192
1.1232569518933455        1.099558079704542        6.643581857968004        -9.187623321439366       -18.970955769824936      0.9595880152088637       17.103071826065417       13.008785655927221       5.489049245630436        -6.9681564137774075      -30.308527248653522      -16.559819994765434
1.1551297957814814        1.1071021429379648       6.420797295594919        -9.318811744978357       -18.93494402711628       1.994206838585204        17.562818303162924       11.025304186630981       6.500463246222103        -6.699782419175803       -34.0528756269652        -11.629417580704958
0.9744710580485122        1.2331969789367185       3.7957849464871063       -10.088631881173876      -13.88154617393535       7.218904823641153        21.923396427548848       5.926317196729683        -15.756489874613303      -12.361901246998388      -9.755471879864361       4.8155444855041365
0.9785028129982039        1.2659116260444894       3.083353333445379        -10.240946989038765      -12.489086577584125      8.67526412233654         22.154400224941977       2.417618923146332        -18.664823967785257      -8.91553769790547        -6.288547815595195       7.054801738698699
0.9480385911299449        1.2535920678226433       3.337966001126724        -10.20334643381098       -12.762132826283166      8.136438163498992        21.800072155631796       4.44244862825665         -18.75252393452112       -11.875073652289947      -4.189295044496936       6.6602512961874885
0.9514130374445067        1.286395441604415        2.6269661730870797       -10.333504066843666      -11.275461445626917      9.462933744649895        21.726147813391947       0.9898258168625823       -21.365610335358337      -7.823769713094703       -0.43811060123901974     7.3326678948946435
1.1463423409833917        1.0754672381267742       7.128012111785275        -8.999393703290435       -19.50663917195897       -0.16932941164171836     15.505990399099945       13.683567102659156       8.796511818836407        -4.6370198133641685      -30.651730636921627      -20.759625548583305
1.1783683234000184        1.082334557522502        6.907940137069268        -9.144840802031077       -19.506025269259634      0.9228940939796301       15.965825435978962       11.780668211547022       10.020388307786575       -4.767197721958819       -34.71672244022691       -15.585760234792962
1.1689069523108915        1.0509249821566806       7.612083404540111        -8.800250648954188       -19.943830003942043      -1.3059467752673903      13.742286511512233       14.162120619942892       11.818402457469771       -1.9559377830364475      -30.03699426359225       -24.738146959133957
1.2010759055407614        1.0570793107092011       7.39505761482945         -8.959852866740063       -19.97985105591173       -0.162048390395736       14.193669719215483       12.357705828206221       13.278874171210925       -2.4642548762820087      -34.41112375089122       -19.448453466878608
1.1909047348044914        1.0259300018586779       8.095286282977085        -8.589936566603098       -20.281207851753262      -2.445885341645338       11.838616299365755       14.434482179014188       14.486545743209055       1.0289059895861465       -28.508982955609955      -28.35241472737266
1.2232422724853804        1.0313478282348794       7.881248456492959        -8.76381897567593        -20.354845992498667      -1.2546427258114168      12.272991758759156       12.741972193109484       16.206506875031824       0.16949250941161478      -33.17211635695361       -23.064478152872123
1.2124582603390968        1.000415787746328        8.578029088452576        -8.368006533523504       -20.51900344933725       -3.5848275246777326      9.818071828056672        14.487965606916829       16.75366916923639        4.272796261871805        -26.1504078519861        -31.466763797303713
1.2448574216453883        1.0051517297276051       8.365604370656822        -8.55676801668882        -20.630182171217392      -2.3487291976023363      10.232221248106514       12.922008159226847       18.742747119101622       3.0848987534475376       -31.068735268606176      -26.289655190883693
0.9211936136418248        1.273447703933983        2.8865891391556104       -10.308854318250736      -11.579529713439705      9.009675643511928        21.394719629873418       2.9311156138258507       -21.387261256667873      -11.064187694069487      1.5783365039186348       7.842719421254997
0.923894501956241         1.3062997164720778       2.1780483520292218       -10.417281453769473      -10.006520135072412      10.200121194672084       21.01779695370046        -0.41678222890597305     -23.633948522682484      -6.5060450133377         5.3952732065971505       6.941322431980584
0.8939107090441603        1.2927159167518691       2.443225825822593        -10.405378243833082      -10.341726514127638      9.834641192449963        20.708436252965075       1.4199262878268082       -23.595491940867202      -9.98377205105883        7.3650962571630325       8.36368845014252
0.8959594209606371        1.3256155988792075       1.737338029278395        -10.492681848884716      -8.689145555806537       10.885237244649511       20.035343844662822       -1.7805751094449693      -25.420651905083904      -5.02192591701115        11.037402474047198       5.933087242103942
0.8662538997318198        1.3114043030772973       2.0083086898257068       -10.493335581135556      -9.055548416623635       10.609975133894393       19.747743356504426       -0.07181388632614734     -25.32466671633824       -8.683107752565133       12.985426460079848       8.252542596543103
0.8676205292556158        1.344334265431855        1.3055564808858866       -10.560125679258292      -7.330489561388089       11.517234134555187       18.788188160868213       -3.0815809726228394      -26.68732342444635       -3.434155627798582       16.323173527189972       4.387852915166684
1.2333013403351452        0.9745068298421856       9.057784035833619        -8.13483962021837        -20.655137672271014      -4.715900691133684       7.719343132234564        14.322444001630187       18.55107916118638        7.700490114218321        -23.059772272795154      -33.964436350779266
1.265911626044489         0.9785028129982044       8.847211830784754        -8.338791329214295       -20.80580034710161       -3.4380364266558896      8.101085127898052        12.889605150389992       20.837518947946553       6.224722461587743        -28.199876486646         -28.994979055667567
1.2536318729137121        0.948066234702949        9.536168013493132        -7.889448979874884       -20.69114183704822       -5.837158721884719       5.561688050475547        13.928762333755529       19.857014307902887       11.264809071630607       -19.363898225370022      -35.75012685883582
1.2863954416044145        0.9514130374445072       9.325154374165143        -8.110046679602522       -20.88242093306366       -4.516254040103728       5.910098330429039        12.639992010191571       22.45239463401897        9.52538238777097         -24.689797665740297      -31.072172502870426
1.273440586554011         0.9211919104527087       10.01037735960619        -7.633140403432983       -20.62816558403621       -6.936121954060348       3.3838376329946023       13.304164729906082       20.646718591935382       14.880560855165532       -15.23674147146504       -36.73436551612631
1.306299716472077         0.9238945019562409       9.798514699572582        -7.870762999738839       -20.861550868592648      -5.577109462698597       3.690016578760032        12.17195460316855        23.561502060951216       12.91894180962621        -20.68262235454055       -32.43817787067258
0.8382164863869656        1.329496999623534        1.5826961030045885       -10.573129359924806      -7.728424175252639       11.33414310081636        18.521607081199747       -1.5226547035736309      -26.53315114415753       -7.22228956519482        18.266622447247013       7.569143529378024
0.8388907973563188        1.3624471476394528       0.8834024124544038       -10.620049041000968      -5.937905769421778       12.095607947469281       17.288929317887728       -4.301839908313612       -27.406999317479933      -1.806664098276092       21.1021851259236         2.409203219123779
0.8098012591687542        1.3469878766176449       1.1670186770709077       -10.645209437700048      -6.367574727723124       12.006526757013331       17.042171793690812       -2.9142532207692238      -27.191032501928415      -5.661420304812823       23.049080511138026       6.397200342611139
0.8097832966028832        1.3799460179814889       0.47154932432049934      -10.672900965920059      -4.518889590405115       12.620388374198948       15.553117133851392       -5.4256958318170625      -27.56444322877552       -0.20258752026796345     25.243479676092537       0.1195397847047326
1.2926977042907952        0.8939147277897675       10.47915447029098        -7.366394271851772       -20.468540869983176      -8.00574288423647        1.2184954776040813       12.453586624340204       20.91064961457661        18.470518092384765       -10.847588337912027      -36.877494694543834
1.325615598879207         0.8959594209606377       10.26637689995568        -7.621244992714719       -20.745481269078127      -6.614445795974795       1.471289239292479        11.487876564135808       24.151989075758667       16.3352145669287         -16.336024058412573      -33.038381917405836
1.311378136945373         0.86624759307007         10.941641198897424       -7.089516496877521       -20.215347004830182      -9.040446113532028       -0.9041971679702822      11.385674316849695       20.652804471299387       21.96166831538829        -6.3657752957656735      -36.17480046103364
1.3443342654318546        0.8676205292556166       10.72782182801105        -7.3618819759914915      -20.53728181792293       -7.622286806377765       -0.716458683983413       10.593717242529646       24.224094664413844       19.703895811083363       -11.814503297515586      -32.84844445463772
1.329464622149457         0.8381978396067549       11.397084832426671       -6.80282174378003        -19.872321560443172      -10.035149652620744      -2.956058453196638       10.111933587900467       19.889918233168903       25.285159158374594       -1.9571088847360532      -34.65234036115425
1.3624471476394522        0.8388907973563193       11.181934406503542       -7.093150914725096       -20.240786671931975      -8.594929221689329       -2.844989860300281       9.498898112717175        23.790832929036497       22.95676924779691        -7.28241139762329        -31.874671709970524
1.3469487079455507        0.8097743148349498       11.844670623284557       -6.506774361516739       -19.44395796785771       -10.984731352331549      -4.9107312823401825      8.64664071060959         18.651345375710374       28.37671585333509        2.2203830654613514       -32.364568506709105
1.379946017981488         0.8097832966028841       11.627807950820303       -6.815620690830428       -19.860569180601768      -9.527027257162732       -4.887980261827212       8.216106493700659        22.877248813391663       26.029803080386486       -2.8971883859622545      -30.152872528287286
1.3638274948761602        0.7809903438746325       12.283472024577657       -6.202050236983438       -18.935607562572798      -11.884004036111618      -6.744012289339698       7.0070715056881445       16.97846101224779        31.178069472452716       6.022364405781363        -29.392508787726197
1.3968229904394054        0.7803111772747571       12.06454649226181        -6.529957488103785       -19.401908663008598      -10.413670646057007      -6.821497751485647       6.761027036812114        21.519293786918322       28.865060536643984       1.1968413334859669       -27.745816574591277
1.38009799424224          0.7518614046914692       12.712532044025709       -5.889476254481429       -18.35339883067948       -12.728187277651204      -8.43458694134466        5.213408981699882        14.922577773239295       33.6394274180086         9.325426896417369        -25.840484409534728
1.413070519511712         0.7504876460588148       12.491267071058667       -6.2369302729181975      -18.870749584003622      -11.250459461301475      -8.624431297157926       5.152005925636579        19.762371604147724       31.412369886339032       4.873834931663446        -24.73947356727108
0.7810189893878734        1.3638726786851514       0.7618578483283205       -10.710025759695762      -4.98034281046445        12.626987457806903       15.324611616329344       -4.2305800349821245      -27.279985946291443      -4.059854484841771       27.190406530683536       4.839323100011821
0.7803111772747562        1.3968229904394058       0.07064489597930543      -10.71914037028687       -3.081024731089901       13.092119265578306       13.598970001831418       -6.440028535817472       -27.15612103323333       1.317639951663948        28.639290052202394       -2.345536534151562
0.751885847537454         1.3801415399016845       0.36790467999580384      -10.768017575369116      -3.574565073101643       13.195682267660132       13.3872690249274         -5.457430870668849       -26.793543575834615      -2.475899346309695       30.569527433351926       3.013497544864262
0.7504876460588137        1.4130705195117124       -0.3186894943566999      -10.75923308367858       -1.6319317396145736      13.511833519500856       11.447066113960547       -7.334427321428901       -26.18988545887159       2.698065055330014        31.207709700631955       -4.843315344478698
1.3957550712565079        0.7224008851512275       13.13096235691438        -5.569942445565991       -17.70403584350012       -13.513333471759026      -9.964698528980461       3.2880980211768134       12.5421060896673         35.721598448701066       12.032672148786894       -21.83038229081748
1.4286813976547477        0.7203259428864659       12.907101985195217       -5.937416297733979       -18.273653454074168      -12.033574512240312      -10.278860375300063      3.409656143585483        17.6596119130963         33.630695383632556       8.030715467842251        -21.238269282260692
1.4107874107110503        0.6926173039444503       13.538025827821206       -5.244292309521611       -16.994492610108406      -14.236708609743522      -11.32042234464842       1.2549509519842224       9.898933772827432        37.397236093434906       14.076949819455317       -17.494587848884375
1.443648751696682         0.6898393158733508       13.311201001153728       -5.632406509301812       -17.61774385199417       -12.759842111213592      -11.770355650380274      1.5564138257641364       15.269939932784427       35.48916370463356        10.590199245365865       -17.359641916415374
0.7224185599408003        1.395785502951188        -0.014186711518424372    -10.819632511768388      -2.1581128058006414      13.713264364198322       11.25106056651861        -6.58317115987145        -25.737346667855892      -0.9642684715839468      33.09142771395073        1.0468265166622455
0.7203259428864653        1.4286813976547483       -0.695859115024363       -10.793648963534984      -0.17921901317242858     13.881022824221011       9.120015250946114        -8.101304628842675       -24.684398640001632      3.888813131209376        32.89424245017164        -7.230255595507965
0.6926315132021981        1.4107977598460077       -0.383831028528749       -10.865326557958007      -0.7387079692075615      14.180885704730386       8.938905813871685        -7.5989278839929755      -24.128478886138556      0.42562629888194675      34.689490225295806       -0.9307173803735159
0.6898393158733496        1.4436487516966825       -1.060296117812777       -10.82285910195982       1.2695635273500105       14.201602818527306       6.642118198759015        -8.735949413169314       -22.668327182255343      4.847461175373112        33.67224458279063        -9.368175985258182
1.4251799830964889        0.6625188726893323       13.93304191470222        -4.913405683956402       -16.23205384500974       -14.896476449088466      -12.491447203806073      -0.8613008944140738      7.057030235907237        38.65038363385367        15.420084667485094       -12.969720353411033
1.4579658476383361        0.6590414153300447       13.702728271236422       -5.32301493565026        -16.910654985222354      -13.426783163830441      -13.088186392515874      -0.38391566327365784     12.656055315834356       36.96769660922029        12.502443194686542       -13.228271488693968
0.6625349381390038        1.425172465840183        -0.7404916319283141      -10.905562301938312      0.6761049646659051       14.600158222140877       6.475268454434684        -8.498582126933398       -21.99441430950534       1.6508151229016048       35.326174119953265       -2.791904290216173
0.6590414153300437        1.4579658476383364       -1.4114549781643586      -10.847332825736473      2.706948359323897        14.475870791599426       4.039056870616862        -9.236515203332084       -20.17938581963509       5.540143458480306        33.5423298106586         -11.130072304794078
0.6321363183205608        1.4389039568980968       -1.0836623014156468      -10.940804088878862      2.078939756637442        14.973095593648145       3.88585837129958         -9.278738727976434       -19.37194760209295       2.6758323827828954       34.99246492387025        -4.417712026382126
0.6279465138951541        1.4716260311937008       -1.7488110343626733      -10.867535241245335      4.125581718201713        14.706464702791548       1.3375752220717503       -9.6039634886633         -17.263248288946787      5.942397644220562        32.530897453486745       -12.405395285075182
0.6014479817532384        1.4519884361068822       -1.4128843101376776      -10.971497074692678      3.4625636695707347       15.301947226198424       1.197584347057454        -9.938553523138417       -16.306531413402457      3.473849547399307        33.706645722994814       -5.703289632529043
0.5965689242260789        1.4846230224025692       -2.071867762724511       -10.883925327417392      5.518289702931297        14.896324842546877       -1.434907780424931       -9.841962041865921       -13.972270935197086      6.039724023683216        30.687829861689504       -13.10459117979039
1.4389206041458944        0.63211708466246         14.315278786544718       -4.578348153780016       -15.42453080123965       -15.491271580179657      -13.471117521114826      -3.0351595225734473      4.082187371213319        39.47596121872883        16.051388591570348       -8.391373270650957
1.4716260311937002        0.6279465138951549       14.08086262282754        -5.010485845947458       -16.160472831594703      -14.032662378870084      -14.225466685414025      -2.386644130822952       9.882357761065615        38.057289079613874       13.745373417361856       -8.970231614677383
1.4520045576761234        0.6014285681009546       14.683886517087041       -4.240502562033703       -14.580481192359741      -16.01998423277163       -14.25676224420109       -5.240386710985823       1.0415198373401733       39.879721518867036       15.986628527923317       -3.8893720328943044
1.4846230224025687        0.5965689242260795       14.444807711555361       -4.696191840062855       -15.375650261407651      -14.576543444458219      -15.179245503716686      -4.4267531025280835      7.012825570918435        38.75992583961912        14.323726621286303       -4.7072690742856365
0.5704872500319805        1.4644235559426766       -1.7277354162057355      -10.998061520110399      4.819894782197115        15.589112208446977       -1.561671718893586       -10.479463050093813      -12.851385761583769      4.026913248240455        31.51297448880257        -6.5620691406753915
0.5649229325615818        1.496950927808264        -2.380157201185112       -10.896953455898364      6.8781156891532556       15.048645863453734       -4.250635768713915       -9.956716143611711       -10.364170314907348      5.827807653998051        28.08350288702508        -13.16263541099022
0.5392686279790428        1.4762073179589128       -2.027824397273975       -11.020907112474282      6.144116452406359        15.837204322151484       -4.363731886826829       -10.9051059901533        -9.06575332289452        4.325818610578           28.47927135045461        -6.928225207511642
0.5330227716077498        1.5086042307204341       -2.673239766283825       -10.90705898784377       8.198352211262925        15.166826597766248       -7.08183296497383        -9.956752361418168       -6.500681385596143       5.31242949141505         24.805336097863588       -12.541485093932375
1.46443242764811          0.5704710088187487       15.037981270508359       -3.9015054222194308      -13.709022395862837      -16.482119848899746      -14.850044249308654      -7.450669426480729       -1.9994855596926449      39.87852782403031        15.26705429429598        0.41796763133563547
1.4969509278082642        0.5649229325615828       14.793794677170533       -4.381635833751946       -14.564926923943068      -15.058317622622063      -15.950474829808249      -6.47941276712879        4.109043988666861        39.088075863959354       14.266828110317725       -0.5516940237537512
1.4762058253674277        0.5392571768752262       15.376769128061083       -3.563093203185527       -12.819407656602566      -16.878237201105552      -15.256878760187762      -9.640725736302732       -4.980813586941977       39.49972653333856        13.956235477283654       4.429569990208763
1.508604230720434         0.5330227716077504       15.127084133938128       -4.068451808701664       -13.737246318341745      -15.47871761404807       -16.543885443854162      -8.520477351261285       1.2284306979039084       39.063841911594054       13.62536807773048        3.397919838995764
0.5078050775544581        1.487332016013459        -2.3126705961650598      -11.040451602194786      7.428316577791322        16.04913752316692        -7.179927215789264       -11.221350766941596      -5.013975691779161       4.369964951585519        24.694257538771918       -6.7580127814769115
0.5008825930187845        1.519577779519949        -2.9507039618388498      -10.91466799957667       9.472569234667136        15.254418788879486       -9.901001860231533       -9.85266161619654        -2.4462326256332516      4.5090802847180615       20.9540735265762         -11.231387695191549
0.47611290589715005       1.4977869021822174       -2.5817501422478384      -11.057111632079726      8.66559041025259         16.22806351934104        -9.981300276980994       -11.436240222614712      -0.7645076735199273      4.167869619835713        20.26433752928003        -6.032880855724897
0.4685164357128062        1.5298667750712702       -3.212166009882536       -10.920191142966763      10.694638943237917       15.315075391509275       -12.681197678966361      -9.656808063106256       1.733328095466107        3.442298534213792        16.639977438135855       -9.251031522877412
1.4873223029814244        0.507797079648161        15.699554296465122       -3.227048207833945       -11.920824558284862      -17.210072264336343      -15.486876207339547      -11.786881739420203      -7.8502750205933625      38.77957186058507        12.13506564287549        8.064937760334383
1.5195777795199488        0.5008825930187852       15.443968020241826       -3.7584033995571082      -12.901670163954355      -15.839315992031446      -16.96777526111358       -10.526943767524548      -1.5772779618123771      38.71781724821144        12.467429472568568       7.060043354248105
1.4977723397650389        0.476105846954044        16.00567061520294        -2.895248844586845       -11.02245321216573       -17.480440939825723      -15.55279247647272       -13.86713332265998       -10.564235842414917      37.76153971387339        9.89659361003546         11.265393957533787
1.5298667750712698        0.46851643571280716      15.743771325102143       -3.4533796628499047      -12.067290965783622      -16.142506491156105      -17.233715179730524      -12.477358685271343      -4.263225460506585       38.08771044279463        10.87404777303984        10.372390116381204
0.4442098384081324        1.5075621288989016       -2.8345788054619834      -11.071293026460511      9.84935579377458         16.377292165603482       -12.739344187220247      -11.559732915431994      3.6118963573260885       3.7369309846654333       15.309320114213447       -4.7609060271115355
0.4359369114974757        1.5394671185816353       -3.4572786581433674      -10.924021761726204      11.858801443971352       15.352500071856634       -15.396382222975044      -9.382998534667113       5.972095202463844        2.1447060680891963       11.978913483390576       -6.646458349416053
1.5075454326090327        0.44420041540056227      16.294487228048066       -2.5696952294797977      -10.133411233884958      -17.69305024150339       -15.470345062634186      -15.861641426001706      -13.087892737367147      36.49454569207068        7.34060911748236         13.995162810639682
1.5394671185816349        0.4359369114974768       16.025864345179027       -3.15537585709597        -11.243111884196734      -16.391475206712702      -17.35618146611071       -14.352231833505066      -6.792374673307371       37.216769764248866       8.934513559215164        13.293065678478365
0.4121092085259979        1.51664985118488         -3.0707440584446495      -11.083391507519615      10.973557446833228       16.500264097381088       -15.426766904219226      -11.60340179464873       8.04436990789796         3.102465777839097        9.957359293588548        -2.9757352437137095
0.4031583748852223        1.5483744136222048       -3.685705596461387       -10.926533606321641      12.959564415722106       15.370391995929461       -18.021372431483243      -9.046168809196235       10.204777305590323       0.65600668691421         7.08930287446277         -3.489276095811982